<?xml version="1.0"?>
<!-- Time step: 10 | Time: 1.000000000000e+07 -->
<VTKFile type="UnstructuredGrid" version="0.1" byte_order="LittleEndian">
  <UnstructuredGrid>
    <Piece NumberOfPoints="201" NumberOfCells="200">
      <Points>
        <DataArray type="Float64" NumberOfComponents="3" format="ascii">
          0.000000000000e+00 0.000000000000e+00 0.000000000000e+00
          5.000000000000e-01 0.000000000000e+00 0.000000000000e+00
          1.000000000000e+00 0.000000000000e+00 0.000000000000e+00
          1.500000000000e+00 0.000000000000e+00 0.000000000000e+00
          2.000000000000e+00 0.000000000000e+00 0.000000000000e+00
          2.500000000000e+00 0.000000000000e+00 0.000000000000e+00
          3.000000000000e+00 0.000000000000e+00 0.000000000000e+00
          3.500000000000e+00 0.000000000000e+00 0.000000000000e+00
          4.000000000000e+00 0.000000000000e+00 0.000000000000e+00
          4.500000000000e+00 0.000000000000e+00 0.000000000000e+00
          5.000000000000e+00 0.000000000000e+00 0.000000000000e+00
          5.500000000000e+00 0.000000000000e+00 0.000000000000e+00
          6.000000000000e+00 0.000000000000e+00 0.000000000000e+00
          6.500000000000e+00 0.000000000000e+00 0.000000000000e+00
          7.000000000000e+00 0.000000000000e+00 0.000000000000e+00
          7.500000000000e+00 0.000000000000e+00 0.000000000000e+00
          8.000000000000e+00 0.000000000000e+00 0.000000000000e+00
          8.500000000000e+00 0.000000000000e+00 0.000000000000e+00
          9.000000000000e+00 0.000000000000e+00 0.000000000000e+00
          9.500000000000e+00 0.000000000000e+00 0.000000000000e+00
          1.000000000000e+01 0.000000000000e+00 0.000000000000e+00
          1.050000000000e+01 0.000000000000e+00 0.000000000000e+00
          1.100000000000e+01 0.000000000000e+00 0.000000000000e+00
          1.150000000000e+01 0.000000000000e+00 0.000000000000e+00
          1.200000000000e+01 0.000000000000e+00 0.000000000000e+00
          1.250000000000e+01 0.000000000000e+00 0.000000000000e+00
          1.300000000000e+01 0.000000000000e+00 0.000000000000e+00
          1.350000000000e+01 0.000000000000e+00 0.000000000000e+00
          1.400000000000e+01 0.000000000000e+00 0.000000000000e+00
          1.450000000000e+01 0.000000000000e+00 0.000000000000e+00
          1.500000000000e+01 0.000000000000e+00 0.000000000000e+00
          1.550000000000e+01 0.000000000000e+00 0.000000000000e+00
          1.600000000000e+01 0.000000000000e+00 0.000000000000e+00
          1.650000000000e+01 0.000000000000e+00 0.000000000000e+00
          1.700000000000e+01 0.000000000000e+00 0.000000000000e+00
          1.750000000000e+01 0.000000000000e+00 0.000000000000e+00
          1.800000000000e+01 0.000000000000e+00 0.000000000000e+00
          1.850000000000e+01 0.000000000000e+00 0.000000000000e+00
          1.900000000000e+01 0.000000000000e+00 0.000000000000e+00
          1.950000000000e+01 0.000000000000e+00 0.000000000000e+00
          2.000000000000e+01 0.000000000000e+00 0.000000000000e+00
          2.050000000000e+01 0.000000000000e+00 0.000000000000e+00
          2.100000000000e+01 0.000000000000e+00 0.000000000000e+00
          2.150000000000e+01 0.000000000000e+00 0.000000000000e+00
          2.200000000000e+01 0.000000000000e+00 0.000000000000e+00
          2.250000000000e+01 0.000000000000e+00 0.000000000000e+00
          2.300000000000e+01 0.000000000000e+00 0.000000000000e+00
          2.350000000000e+01 0.000000000000e+00 0.000000000000e+00
          2.400000000000e+01 0.000000000000e+00 0.000000000000e+00
          2.450000000000e+01 0.000000000000e+00 0.000000000000e+00
          2.500000000000e+01 0.000000000000e+00 0.000000000000e+00
          2.550000000000e+01 0.000000000000e+00 0.000000000000e+00
          2.600000000000e+01 0.000000000000e+00 0.000000000000e+00
          2.650000000000e+01 0.000000000000e+00 0.000000000000e+00
          2.700000000000e+01 0.000000000000e+00 0.000000000000e+00
          2.750000000000e+01 0.000000000000e+00 0.000000000000e+00
          2.800000000000e+01 0.000000000000e+00 0.000000000000e+00
          2.850000000000e+01 0.000000000000e+00 0.000000000000e+00
          2.900000000000e+01 0.000000000000e+00 0.000000000000e+00
          2.950000000000e+01 0.000000000000e+00 0.000000000000e+00
          3.000000000000e+01 0.000000000000e+00 0.000000000000e+00
          3.050000000000e+01 0.000000000000e+00 0.000000000000e+00
          3.100000000000e+01 0.000000000000e+00 0.000000000000e+00
          3.150000000000e+01 0.000000000000e+00 0.000000000000e+00
          3.200000000000e+01 0.000000000000e+00 0.000000000000e+00
          3.250000000000e+01 0.000000000000e+00 0.000000000000e+00
          3.300000000000e+01 0.000000000000e+00 0.000000000000e+00
          3.350000000000e+01 0.000000000000e+00 0.000000000000e+00
          3.400000000000e+01 0.000000000000e+00 0.000000000000e+00
          3.450000000000e+01 0.000000000000e+00 0.000000000000e+00
          3.500000000000e+01 0.000000000000e+00 0.000000000000e+00
          3.550000000000e+01 0.000000000000e+00 0.000000000000e+00
          3.600000000000e+01 0.000000000000e+00 0.000000000000e+00
          3.650000000000e+01 0.000000000000e+00 0.000000000000e+00
          3.700000000000e+01 0.000000000000e+00 0.000000000000e+00
          3.750000000000e+01 0.000000000000e+00 0.000000000000e+00
          3.800000000000e+01 0.000000000000e+00 0.000000000000e+00
          3.850000000000e+01 0.000000000000e+00 0.000000000000e+00
          3.900000000000e+01 0.000000000000e+00 0.000000000000e+00
          3.950000000000e+01 0.000000000000e+00 0.000000000000e+00
          4.000000000000e+01 0.000000000000e+00 0.000000000000e+00
          4.050000000000e+01 0.000000000000e+00 0.000000000000e+00
          4.100000000000e+01 0.000000000000e+00 0.000000000000e+00
          4.150000000000e+01 0.000000000000e+00 0.000000000000e+00
          4.200000000000e+01 0.000000000000e+00 0.000000000000e+00
          4.250000000000e+01 0.000000000000e+00 0.000000000000e+00
          4.300000000000e+01 0.000000000000e+00 0.000000000000e+00
          4.350000000000e+01 0.000000000000e+00 0.000000000000e+00
          4.400000000000e+01 0.000000000000e+00 0.000000000000e+00
          4.450000000000e+01 0.000000000000e+00 0.000000000000e+00
          4.500000000000e+01 0.000000000000e+00 0.000000000000e+00
          4.550000000000e+01 0.000000000000e+00 0.000000000000e+00
          4.600000000000e+01 0.000000000000e+00 0.000000000000e+00
          4.650000000000e+01 0.000000000000e+00 0.000000000000e+00
          4.700000000000e+01 0.000000000000e+00 0.000000000000e+00
          4.750000000000e+01 0.000000000000e+00 0.000000000000e+00
          4.800000000000e+01 0.000000000000e+00 0.000000000000e+00
          4.850000000000e+01 0.000000000000e+00 0.000000000000e+00
          4.900000000000e+01 0.000000000000e+00 0.000000000000e+00
          4.950000000000e+01 0.000000000000e+00 0.000000000000e+00
          5.000000000000e+01 0.000000000000e+00 0.000000000000e+00
          5.050000000000e+01 0.000000000000e+00 0.000000000000e+00
          5.100000000000e+01 0.000000000000e+00 0.000000000000e+00
          5.150000000000e+01 0.000000000000e+00 0.000000000000e+00
          5.200000000000e+01 0.000000000000e+00 0.000000000000e+00
          5.250000000000e+01 0.000000000000e+00 0.000000000000e+00
          5.300000000000e+01 0.000000000000e+00 0.000000000000e+00
          5.350000000000e+01 0.000000000000e+00 0.000000000000e+00
          5.400000000000e+01 0.000000000000e+00 0.000000000000e+00
          5.450000000000e+01 0.000000000000e+00 0.000000000000e+00
          5.500000000000e+01 0.000000000000e+00 0.000000000000e+00
          5.550000000000e+01 0.000000000000e+00 0.000000000000e+00
          5.600000000000e+01 0.000000000000e+00 0.000000000000e+00
          5.650000000000e+01 0.000000000000e+00 0.000000000000e+00
          5.700000000000e+01 0.000000000000e+00 0.000000000000e+00
          5.750000000000e+01 0.000000000000e+00 0.000000000000e+00
          5.800000000000e+01 0.000000000000e+00 0.000000000000e+00
          5.850000000000e+01 0.000000000000e+00 0.000000000000e+00
          5.900000000000e+01 0.000000000000e+00 0.000000000000e+00
          5.950000000000e+01 0.000000000000e+00 0.000000000000e+00
          6.000000000000e+01 0.000000000000e+00 0.000000000000e+00
          6.050000000000e+01 0.000000000000e+00 0.000000000000e+00
          6.100000000000e+01 0.000000000000e+00 0.000000000000e+00
          6.150000000000e+01 0.000000000000e+00 0.000000000000e+00
          6.200000000000e+01 0.000000000000e+00 0.000000000000e+00
          6.250000000000e+01 0.000000000000e+00 0.000000000000e+00
          6.300000000000e+01 0.000000000000e+00 0.000000000000e+00
          6.350000000000e+01 0.000000000000e+00 0.000000000000e+00
          6.400000000000e+01 0.000000000000e+00 0.000000000000e+00
          6.450000000000e+01 0.000000000000e+00 0.000000000000e+00
          6.500000000000e+01 0.000000000000e+00 0.000000000000e+00
          6.550000000000e+01 0.000000000000e+00 0.000000000000e+00
          6.600000000000e+01 0.000000000000e+00 0.000000000000e+00
          6.650000000000e+01 0.000000000000e+00 0.000000000000e+00
          6.700000000000e+01 0.000000000000e+00 0.000000000000e+00
          6.750000000000e+01 0.000000000000e+00 0.000000000000e+00
          6.800000000000e+01 0.000000000000e+00 0.000000000000e+00
          6.850000000000e+01 0.000000000000e+00 0.000000000000e+00
          6.900000000000e+01 0.000000000000e+00 0.000000000000e+00
          6.950000000000e+01 0.000000000000e+00 0.000000000000e+00
          7.000000000000e+01 0.000000000000e+00 0.000000000000e+00
          7.050000000000e+01 0.000000000000e+00 0.000000000000e+00
          7.100000000000e+01 0.000000000000e+00 0.000000000000e+00
          7.150000000000e+01 0.000000000000e+00 0.000000000000e+00
          7.200000000000e+01 0.000000000000e+00 0.000000000000e+00
          7.250000000000e+01 0.000000000000e+00 0.000000000000e+00
          7.300000000000e+01 0.000000000000e+00 0.000000000000e+00
          7.350000000000e+01 0.000000000000e+00 0.000000000000e+00
          7.400000000000e+01 0.000000000000e+00 0.000000000000e+00
          7.450000000000e+01 0.000000000000e+00 0.000000000000e+00
          7.500000000000e+01 0.000000000000e+00 0.000000000000e+00
          7.550000000000e+01 0.000000000000e+00 0.000000000000e+00
          7.600000000000e+01 0.000000000000e+00 0.000000000000e+00
          7.650000000000e+01 0.000000000000e+00 0.000000000000e+00
          7.700000000000e+01 0.000000000000e+00 0.000000000000e+00
          7.750000000000e+01 0.000000000000e+00 0.000000000000e+00
          7.800000000000e+01 0.000000000000e+00 0.000000000000e+00
          7.850000000000e+01 0.000000000000e+00 0.000000000000e+00
          7.900000000000e+01 0.000000000000e+00 0.000000000000e+00
          7.950000000000e+01 0.000000000000e+00 0.000000000000e+00
          8.000000000000e+01 0.000000000000e+00 0.000000000000e+00
          8.050000000000e+01 0.000000000000e+00 0.000000000000e+00
          8.100000000000e+01 0.000000000000e+00 0.000000000000e+00
          8.150000000000e+01 0.000000000000e+00 0.000000000000e+00
          8.200000000000e+01 0.000000000000e+00 0.000000000000e+00
          8.250000000000e+01 0.000000000000e+00 0.000000000000e+00
          8.300000000000e+01 0.000000000000e+00 0.000000000000e+00
          8.350000000000e+01 0.000000000000e+00 0.000000000000e+00
          8.400000000000e+01 0.000000000000e+00 0.000000000000e+00
          8.450000000000e+01 0.000000000000e+00 0.000000000000e+00
          8.500000000000e+01 0.000000000000e+00 0.000000000000e+00
          8.550000000000e+01 0.000000000000e+00 0.000000000000e+00
          8.600000000000e+01 0.000000000000e+00 0.000000000000e+00
          8.650000000000e+01 0.000000000000e+00 0.000000000000e+00
          8.700000000000e+01 0.000000000000e+00 0.000000000000e+00
          8.750000000000e+01 0.000000000000e+00 0.000000000000e+00
          8.800000000000e+01 0.000000000000e+00 0.000000000000e+00
          8.850000000000e+01 0.000000000000e+00 0.000000000000e+00
          8.900000000000e+01 0.000000000000e+00 0.000000000000e+00
          8.950000000000e+01 0.000000000000e+00 0.000000000000e+00
          9.000000000000e+01 0.000000000000e+00 0.000000000000e+00
          9.050000000000e+01 0.000000000000e+00 0.000000000000e+00
          9.100000000000e+01 0.000000000000e+00 0.000000000000e+00
          9.150000000000e+01 0.000000000000e+00 0.000000000000e+00
          9.200000000000e+01 0.000000000000e+00 0.000000000000e+00
          9.250000000000e+01 0.000000000000e+00 0.000000000000e+00
          9.300000000000e+01 0.000000000000e+00 0.000000000000e+00
          9.350000000000e+01 0.000000000000e+00 0.000000000000e+00
          9.400000000000e+01 0.000000000000e+00 0.000000000000e+00
          9.450000000000e+01 0.000000000000e+00 0.000000000000e+00
          9.500000000000e+01 0.000000000000e+00 0.000000000000e+00
          9.550000000000e+01 0.000000000000e+00 0.000000000000e+00
          9.600000000000e+01 0.000000000000e+00 0.000000000000e+00
          9.650000000000e+01 0.000000000000e+00 0.000000000000e+00
          9.700000000000e+01 0.000000000000e+00 0.000000000000e+00
          9.750000000000e+01 0.000000000000e+00 0.000000000000e+00
          9.800000000000e+01 0.000000000000e+00 0.000000000000e+00
          9.850000000000e+01 0.000000000000e+00 0.000000000000e+00
          9.900000000000e+01 0.000000000000e+00 0.000000000000e+00
          9.950000000000e+01 0.000000000000e+00 0.000000000000e+00
          1.000000000000e+02 0.000000000000e+00 0.000000000000e+00
        </DataArray>
      </Points>
      <Cells>
        <DataArray type="Int64" Name="connectivity" format="ascii">
          0 1 
          1 2 
          2 3 
          3 4 
          4 5 
          5 6 
          6 7 
          7 8 
          8 9 
          9 10 
          10 11 
          11 12 
          12 13 
          13 14 
          14 15 
          15 16 
          16 17 
          17 18 
          18 19 
          19 20 
          20 21 
          21 22 
          22 23 
          23 24 
          24 25 
          25 26 
          26 27 
          27 28 
          28 29 
          29 30 
          30 31 
          31 32 
          32 33 
          33 34 
          34 35 
          35 36 
          36 37 
          37 38 
          38 39 
          39 40 
          40 41 
          41 42 
          42 43 
          43 44 
          44 45 
          45 46 
          46 47 
          47 48 
          48 49 
          49 50 
          50 51 
          51 52 
          52 53 
          53 54 
          54 55 
          55 56 
          56 57 
          57 58 
          58 59 
          59 60 
          60 61 
          61 62 
          62 63 
          63 64 
          64 65 
          65 66 
          66 67 
          67 68 
          68 69 
          69 70 
          70 71 
          71 72 
          72 73 
          73 74 
          74 75 
          75 76 
          76 77 
          77 78 
          78 79 
          79 80 
          80 81 
          81 82 
          82 83 
          83 84 
          84 85 
          85 86 
          86 87 
          87 88 
          88 89 
          89 90 
          90 91 
          91 92 
          92 93 
          93 94 
          94 95 
          95 96 
          96 97 
          97 98 
          98 99 
          99 100 
          100 101 
          101 102 
          102 103 
          103 104 
          104 105 
          105 106 
          106 107 
          107 108 
          108 109 
          109 110 
          110 111 
          111 112 
          112 113 
          113 114 
          114 115 
          115 116 
          116 117 
          117 118 
          118 119 
          119 120 
          120 121 
          121 122 
          122 123 
          123 124 
          124 125 
          125 126 
          126 127 
          127 128 
          128 129 
          129 130 
          130 131 
          131 132 
          132 133 
          133 134 
          134 135 
          135 136 
          136 137 
          137 138 
          138 139 
          139 140 
          140 141 
          141 142 
          142 143 
          143 144 
          144 145 
          145 146 
          146 147 
          147 148 
          148 149 
          149 150 
          150 151 
          151 152 
          152 153 
          153 154 
          154 155 
          155 156 
          156 157 
          157 158 
          158 159 
          159 160 
          160 161 
          161 162 
          162 163 
          163 164 
          164 165 
          165 166 
          166 167 
          167 168 
          168 169 
          169 170 
          170 171 
          171 172 
          172 173 
          173 174 
          174 175 
          175 176 
          176 177 
          177 178 
          178 179 
          179 180 
          180 181 
          181 182 
          182 183 
          183 184 
          184 185 
          185 186 
          186 187 
          187 188 
          188 189 
          189 190 
          190 191 
          191 192 
          192 193 
          193 194 
          194 195 
          195 196 
          196 197 
          197 198 
          198 199 
          199 200 
        </DataArray>
        <DataArray type="Int64" Name="offsets" format="ascii">
          2 4 6 8 10 12 14 16 18 20 22 24 26 28 30 32 34 36 38 40 42 44 46 48 50 52 54 56 58 60 62 64 66 68 70 72 74 76 78 80 82 84 86 88 90 92 94 96 98 100 102 104 106 108 110 112 114 116 118 120 122 124 126 128 130 132 134 136 138 140 142 144 146 148 150 152 154 156 158 160 162 164 166 168 170 172 174 176 178 180 182 184 186 188 190 192 194 196 198 200 202 204 206 208 210 212 214 216 218 220 222 224 226 228 230 232 234 236 238 240 242 244 246 248 250 252 254 256 258 260 262 264 266 268 270 272 274 276 278 280 282 284 286 288 290 292 294 296 298 300 302 304 306 308 310 312 314 316 318 320 322 324 326 328 330 332 334 336 338 340 342 344 346 348 350 352 354 356 358 360 362 364 366 368 370 372 374 376 378 380 382 384 386 388 390 392 394 396 398 400 
        </DataArray>
        <DataArray type="UInt8" Name="types" format="ascii">
          3 3 3 3 3 3 3 3 3 3 3 3 3 3 3 3 3 3 3 3 3 3 3 3 3 3 3 3 3 3 3 3 3 3 3 3 3 3 3 3 3 3 3 3 3 3 3 3 3 3 3 3 3 3 3 3 3 3 3 3 3 3 3 3 3 3 3 3 3 3 3 3 3 3 3 3 3 3 3 3 3 3 3 3 3 3 3 3 3 3 3 3 3 3 3 3 3 3 3 3 3 3 3 3 3 3 3 3 3 3 3 3 3 3 3 3 3 3 3 3 3 3 3 3 3 3 3 3 3 3 3 3 3 3 3 3 3 3 3 3 3 3 3 3 3 3 3 3 3 3 3 3 3 3 3 3 3 3 3 3 3 3 3 3 3 3 3 3 3 3 3 3 3 3 3 3 3 3 3 3 3 3 3 3 3 3 3 3 3 3 3 3 3 3 3 3 3 3 3 3 
        </DataArray>
      </Cells>
      <PointData Scalars="PRESSURE1">
        <DataArray type="Float64" Name="PRESSURE1" format="ascii">
          1.000100000000e+05 1.000099500000e+05 1.000099000000e+05 1.000098500000e+05 1.000098000000e+05 1.000097500000e+05 1.000097000000e+05 1.000096500000e+05 1.000096000000e+05 1.000095500000e+05 1.000095000000e+05 1.000094500000e+05 1.000094000000e+05 1.000093500000e+05 1.000093000000e+05 1.000092500000e+05 1.000092000000e+05 1.000091500000e+05 1.000091000000e+05 1.000090500000e+05 1.000090000000e+05 1.000089500000e+05 1.000089000000e+05 1.000088500000e+05 1.000088000000e+05 1.000087500000e+05 1.000087000000e+05 1.000086500000e+05 1.000086000000e+05 1.000085500000e+05 1.000085000000e+05 1.000084500000e+05 1.000084000000e+05 1.000083500000e+05 1.000083000000e+05 1.000082500000e+05 1.000082000000e+05 1.000081500000e+05 1.000081000000e+05 1.000080500000e+05 1.000080000000e+05 1.000079500000e+05 1.000079000000e+05 1.000078500000e+05 1.000078000000e+05 1.000077500000e+05 1.000077000000e+05 1.000076500000e+05 1.000076000000e+05 1.000075500000e+05 1.000075000000e+05 1.000074500000e+05 1.000074000000e+05 1.000073500000e+05 1.000073000000e+05 1.000072500000e+05 1.000072000000e+05 1.000071500000e+05 1.000071000000e+05 1.000070500000e+05 1.000070000000e+05 1.000069500000e+05 1.000069000000e+05 1.000068500000e+05 1.000068000000e+05 1.000067500000e+05 1.000067000000e+05 1.000066500000e+05 1.000066000000e+05 1.000065500000e+05 1.000065000000e+05 1.000064500000e+05 1.000064000000e+05 1.000063500000e+05 1.000063000000e+05 1.000062500000e+05 1.000062000000e+05 1.000061500000e+05 1.000061000000e+05 1.000060500000e+05 1.000060000000e+05 1.000059500000e+05 1.000059000000e+05 1.000058500000e+05 1.000058000000e+05 1.000057500000e+05 1.000057000000e+05 1.000056500000e+05 1.000056000000e+05 1.000055500000e+05 1.000055000000e+05 1.000054500000e+05 1.000054000000e+05 1.000053500000e+05 1.000053000000e+05 1.000052500000e+05 1.000052000000e+05 1.000051500000e+05 1.000051000000e+05 1.000050500000e+05 1.000050000000e+05 1.000049500000e+05 1.000049000000e+05 1.000048500000e+05 1.000048000000e+05 1.000047500000e+05 1.000047000000e+05 1.000046500000e+05 1.000046000000e+05 1.000045500000e+05 1.000045000000e+05 1.000044500000e+05 1.000044000000e+05 1.000043500000e+05 1.000043000000e+05 1.000042500000e+05 1.000042000000e+05 1.000041500000e+05 1.000041000000e+05 1.000040500000e+05 1.000040000000e+05 1.000039500000e+05 1.000039000000e+05 1.000038500000e+05 1.000038000000e+05 1.000037500000e+05 1.000037000000e+05 1.000036500000e+05 1.000036000000e+05 1.000035500000e+05 1.000035000000e+05 1.000034500000e+05 1.000034000000e+05 1.000033500000e+05 1.000033000000e+05 1.000032500000e+05 1.000032000000e+05 1.000031500000e+05 1.000031000000e+05 1.000030500000e+05 1.000030000000e+05 1.000029500000e+05 1.000029000000e+05 1.000028500000e+05 1.000028000000e+05 1.000027500000e+05 1.000027000000e+05 1.000026500000e+05 1.000026000000e+05 1.000025500000e+05 1.000025000000e+05 1.000024500000e+05 1.000024000000e+05 1.000023500000e+05 1.000023000000e+05 1.000022500000e+05 1.000022000000e+05 1.000021500000e+05 1.000021000000e+05 1.000020500000e+05 1.000020000000e+05 1.000019500000e+05 1.000019000000e+05 1.000018500000e+05 1.000018000000e+05 1.000017500000e+05 1.000017000000e+05 1.000016500000e+05 1.000016000000e+05 1.000015500000e+05 1.000015000000e+05 1.000014500000e+05 1.000014000000e+05 1.000013500000e+05 1.000013000000e+05 1.000012500000e+05 1.000012000000e+05 1.000011500000e+05 1.000011000000e+05 1.000010500000e+05 1.000010000000e+05 1.000009500000e+05 1.000009000000e+05 1.000008500000e+05 1.000008000000e+05 1.000007500000e+05 1.000007000000e+05 1.000006500000e+05 1.000006000000e+05 1.000005500000e+05 1.000005000000e+05 1.000004500000e+05 1.000004000000e+05 1.000003500000e+05 1.000003000000e+05 1.000002500000e+05 1.000002000000e+05 1.000001500000e+05 1.000001000000e+05 1.000000500000e+05 1.000000000000e+05 
        </DataArray>
        <DataArray type="Float64" Name="TEMPERATURE1" format="ascii">
          1.000000000000e+00 7.664881011359e-01 5.532104046076e-01 3.754704283706e-01 2.397732127065e-01 1.443595372225e-01 8.219265965972e-02 4.441666577160e-02 2.287073086553e-02 1.126519031123e-02 5.327985800520e-03 2.428250295253e-03 1.069912127760e-03 4.571071608538e-04 1.898756004773e-04 7.686871112705e-05 3.039478007597e-05 1.176139726656e-05 4.461521546049e-06 1.661677278318e-06 6.084937491053e-07 2.193593553422e-07 7.793588784054e-08 2.731762404367e-08 9.455248956142e-09 3.234376997143e-09 1.094273088378e-09 3.664193950550e-10 1.215130142778e-10 3.993091073732e-11 1.300969671002e-11 4.204431029533e-12 1.348413008806e-12 4.293311424512e-13 1.357624640919e-13 4.265168777851e-14 1.331685188557e-14 4.133374010154e-15 1.275747597236e-15 3.916443407576e-16 1.196156055463e-16 3.635356291464e-17 1.099655291308e-17 3.311292362858e-18 9.927615521161e-19 2.963934447884e-19 8.813194537505e-20 2.610355710347e-20 7.702363509109e-21 2.264430708291e-21 6.633674045466e-22 1.936669820012e-22 5.635168485093e-23 1.634364922880e-23 4.725204060103e-24 1.361939971542e-24 3.913773637571e-25 1.121415192293e-25 3.204063606679e-26 9.129125676964e-27 2.594051227312e-27 7.351497197003e-28 2.078003296391e-28 5.858871343762e-29 1.647790369862e-29 4.623087822286e-30 1.293973620960e-30 3.613281222808e-31 1.006654038006e-31 2.798202105660e-32 7.760964794364e-33 2.147864214535e-33 5.931552444672e-34 1.634615708093e-34 4.495348504014e-35 1.233745365158e-35 3.379213801180e-36 9.237335919800e-37 2.520177850540e-37 6.862478603996e-38 1.865123926691e-38 5.059671751744e-39 1.370047483879e-39 3.703034828901e-40 9.990765618252e-41 2.690717326232e-41 7.233939947268e-42 1.941458440769e-42 5.201591115830e-43 1.391257331951e-43 3.714922875551e-44 9.903093310857e-45 2.635591235967e-45 7.002908819236e-46 1.857714578386e-46 4.920239376731e-47 1.301087765255e-47 3.435154218525e-48 9.055472642971e-49 2.383455175094e-49 6.263821611256e-50 1.643666298769e-50 4.306604231633e-51 1.126700020370e-51 2.943326761419e-52 7.677682267512e-53 1.999805454347e-53 5.201344718708e-54 1.350883715936e-54 3.503472794148e-55 9.073228606197e-56 2.346448372973e-56 6.059681312204e-57 1.562721716446e-57 4.024481259792e-58 1.034993826461e-58 2.658081298357e-59 6.817173560166e-60 1.746018546677e-60 4.465853453749e-61 1.140706154544e-61 2.909774144741e-62 7.412476381835e-63 1.885767606607e-63 4.791108234565e-64 1.215650708399e-64 3.080410529814e-65 7.795378544951e-66 1.970136841003e-66 4.972649003707e-67 1.253467308363e-67 3.155538470551e-68 7.933605180464e-69 1.992074650348e-69 4.995509018888e-70 1.251105984347e-70 3.129317900211e-71 7.817131557613e-72 1.950240397483e-72 4.859287740324e-73 1.209209329501e-73 3.005213597904e-74 7.459241664926e-75 1.849097857595e-75 4.577952933858e-76 1.131955105870e-76 2.795333901012e-77 6.894215656879e-78 1.698176054981e-78 4.177602797701e-79 1.026403175161e-79 2.518575526377e-80 6.172168574161e-81 1.510657323163e-81 3.692657358019e-82 9.014804957401e-83 2.197947162446e-83 5.352060093770e-84 1.301567444639e-84 3.161210324304e-85 7.667964444885e-86 1.857571975970e-86 4.494163396338e-87 1.085896438338e-87 2.620371726511e-88 6.314963667341e-89 1.519884822431e-89 3.653260912275e-90 8.769586474903e-91 2.102345435989e-91 5.033309064065e-92 1.203443216509e-92 2.873544378277e-93 6.852171540385e-94 1.631752028893e-94 3.880549303600e-95 9.216005805413e-96 2.185747687755e-96 5.176809876145e-97 1.224408475686e-97 2.891939901621e-98 6.820996033866e-99 1.606565994990e-99 3.778662401521e-100 8.874885015380e-101 2.081463164779e-101 4.874747933526e-102 1.140010829044e-102 2.662164915689e-103 6.207628683871e-104 1.445362467898e-104 3.360341262324e-105 7.800827926747e-106 1.808188357773e-106 4.184919178209e-107 9.670872165323e-108 2.231395243644e-108 5.141222760835e-109 1.185589816320e-109 2.856791973748e-110 1.243629538435e-110 
        </DataArray>
      </PointData>
      <CellData>
        <DataArray type="Float64" Name="VELOCITY" NumberOfComponents="3" format="ascii">